version 3
run General-0-20230516-15:00:59-23849
attr configname General
attr datetime 20230516-15:00:59
attr datetimef 20230516-150059
attr experiment General
attr inifile omnetpp.ini
attr iterationvars ""
attr iterationvarsd ""
attr iterationvarsf ""
attr measurement ""
attr network Network
attr processid 23849
attr repetition 0
attr replication #0
attr resultdir results
attr runnumber 0
attr seedset 0
config network Network
config sim-time-limit 200s
config Network.nodeTx.gen.generationInterval exponential(0.2)
config Network.nodeTx.gen.packetByteSize 12500
config Network.nodeTx.traTx.bufferSize 2000000
config Network.nodeTx.traTx.waitTime 1
config Network.nodeRx.traRx.bufferSize 200
config Network.queue0.serviceTime exponential(0.1)
config Network.queue0.bufferSize 200
config Network.queue1.serviceTime exponential(0.1)
config Network.queue1.bufferSize 200

vector 0 Network.nodeTx.gen packetsSentV ETV
vector 1 Network.nodeTx.traTx bufferSizeVector ETV
vector 2 Network.queue0 bufferSizeVector ETV
vector 3 Network.nodeRx.traRx bufferSizeVector ETV
vector 4 Network.nodeRx.sink Delay ETV
vector 5 Network.nodeRx.sink packetsRecivedV ETV
0	1	0.159174900913	1
0	7	0.33888697861	2
0	20	0.590073130219	3
0	31	0.961993972634	4
0	39	1.146638598928	5
0	52	1.536947666105	6
0	60	1.694387894101	7
0	73	2.070180704942	8
0	81	2.180390402276	9
0	90	2.375791687555	10
0	102	2.583423547688	11
0	107	2.680449180432	12
0	116	2.795553019809	13
0	119	2.866184847637	14
0	138	3.310889732044	15
0	141	3.322566665863	16
0	158	3.985549121849	17
0	161	4.049220350017	18
0	168	4.145940771007	19
0	175	4.275830040657	20
0	191	4.589609264182	21
0	201	4.924051504247	22
0	209	5.07458632691	23
0	219	5.205362840354	24
0	227	5.373249410934	25
0	234	5.473023812737	26
0	251	5.992674629907	27
0	262	6.354348482762	28
0	265	6.369085553855	29
0	269	6.451401153104	30
0	274	6.469633358329	31
0	285	6.678555859991	32
0	287	6.682640977671	33
0	295	6.774490605122	34
0	311	7.13198813781	35
0	329	7.762022123545	36
0	339	8.063178975272	37
0	342	8.093425146005	38
0	357	8.501487997593	39
0	369	8.909666440775	40
0	382	9.678710814603	41
0	388	9.807052649139	42
0	401	10.128100560551	43
0	412	10.45090097553	44
0	420	10.574686867455	45
0	429	10.721679751693	46
0	441	11.024986946491	47
0	453	11.252174734833	48
0	456	11.277349616721	49
0	468	11.532395157166	50
0	480	11.736681532036	51
0	488	11.911145771044	52
0	493	11.942091707144	53
0	500	12.096258638837	54
0	518	12.675142734434	55
0	529	12.959415670453	56
0	537	13.106981128804	57
0	540	13.129370360931	58
0	548	13.236483504977	59
0	556	13.364822445383	60
0	562	13.426278515814	61
0	564	13.46751917222	62
0	582	13.76517013737	63
0	594	14.032228174295	64
0	600	14.154044658932	65
0	605	14.202854357079	66
0	618	14.370921298201	67
0	621	14.399976903659	68
0	623	14.403770617499	69
0	630	14.482124779634	70
0	642	14.674400967447	71
0	644	14.706828265336	72
0	656	14.896227600771	73
0	658	14.946515987186	74
0	670	15.13842558266	75
0	678	15.236136992522	76
0	696	15.811719996778	77
0	708	16.277502671621	78
0	718	16.506530462561	79
0	726	16.626079677925	80
0	731	16.715183376935	81
0	742	16.905082293634	82
0	752	17.019988774982	83
0	766	17.485258987321	84
0	776	17.724480547212	85
0	779	17.745392792367	86
0	781	17.75781585046	87
0	804	18.457858587351	88
0	814	18.677641080861	89
0	824	18.889407907159	90
0	834	19.111527396296	91
0	837	19.1490126095	92
0	841	19.196253950717	93
0	846	19.284934756441	94
0	852	19.312540494127	95
0	866	19.590349032085	96
0	872	19.666141424942	97
0	884	19.853353736896	98
0	889	19.943774148941	99
0	896	20.022396660402	100
0	908	20.191282219108	101
0	911	20.199118850391	102
0	918	20.314583712552	103
0	930	20.515757913585	104
0	950	21.40665728282	105
0	964	22.045246611231	106
0	967	22.066773632862	107
0	978	22.278338915532	108
0	981	22.325199219287	109
0	994	22.526803068371	110
0	999	22.561985777456	111
0	1022	23.634005847505	112
0	1032	23.845754390524	113
0	1040	24.020137561249	114
0	1045	24.078553667902	115
0	1052	24.185566603319	116
0	1058	24.311154919517	117
0	1070	24.439911119838	118
0	1073	24.495966521534	119
0	1086	24.691339336348	120
0	1089	24.725964827577	121
0	1098	24.808465073561	122
0	1100	24.831856155519	123
0	1112	25.056489815826	124
0	1124	25.270104255256	125
0	1129	25.346415423931	126
0	1136	25.376157877781	127
0	1150	25.677484944436	128
0	1153	25.721261063737	129
0	1170	26.318699042107	130
0	1175	26.410701833655	131
0	1188	26.627955709831	132
0	1200	26.972022041374	133
0	1203	26.97475495706	134
0	1205	26.995183933365	135
0	1216	27.190204320196	136
0	1230	27.554168104053	137
0	1242	27.778130977204	138
0	1245	27.798337932266	139
0	1262	28.513055606735	140
0	1278	29.262861898652	141
0	1290	29.68392615881	142
0	1298	29.810393478089	143
0	1306	29.952910196756	144
0	1324	30.705295653657	145
0	1327	30.716761038942	146
0	1334	30.902456738322	147
0	1346	31.02244611565	148
0	1358	31.29129517008	149
0	1361	31.295333195709	150
0	1363	31.303328455521	151
0	1370	31.419904133294	152
0	1372	31.486386181487	153
0	1400	32.264700206056	154
0	1403	32.290311559118	155
0	1410	32.379395451502	156
0	1412	32.449630669378	157
0	1424	32.580759926251	158
0	1426	32.606037653536	159
0	1438	32.839412358846	160
0	1444	32.915952548618	161
0	1460	33.340799988018	162
0	1468	33.447776863169	163
0	1482	33.948559219786	164
0	1487	33.961818700082	165
0	1489	34.010697789698	166
0	1500	34.246535695111	167
0	1512	34.413104398324	168
0	1522	34.580323904718	169
0	1536	34.980972009219	170
0	1539	35.042654977239	171
0	1550	35.184904564682	172
0	1558	35.333056354771	173
0	1574	35.830172826166	174
0	1577	35.84990288785	175
0	1592	36.357963789442	176
0	1600	36.529542917657	177
0	1603	36.546897014125	178
0	1622	37.07674819986	179
0	1625	37.141816282966	180
0	1632	37.218528325786	181
0	1634	37.220408475919	182
0	1646	37.440577657937	183
0	1662	37.810043188137	184
0	1665	37.838309330849	185
0	1676	38.046665461685	186
0	1688	38.298652223707	187
0	1700	38.666908718004	188
0	1703	38.735239551409	189
0	1710	38.796743096161	190
0	1712	38.837213183874	191
0	1718	38.938653208525	192
0	1730	39.115279016917	193
0	1742	39.276238496877	194
0	1745	39.280300988636	195
0	1747	39.316351439033	196
0	1766	39.669499653516	197
0	1773	39.761845832725	198
0	1775	39.762787140823	199
0	1780	39.794455442069	200
0	1792	40.020982270463	201
0	1804	40.189598876893	202
0	1807	40.252543209064	203
0	1822	40.495844939751	204
0	1834	40.761596514501	205
0	1837	40.829665862148	206
0	1854	41.484694497691	207
0	1862	41.598275328387	208
0	1865	41.655479522889	209
0	1880	41.937684404748	210
0	1888	42.109362998314	211
0	1898	42.210231759632	212
0	1908	42.389549933789	213
0	1922	42.842296648961	214
0	1930	43.012140811274	215
0	1942	43.215872557278	216
0	1945	43.266356555856	217
0	1960	43.710657935551	218
0	1974	44.321114266928	219
0	1984	44.549035859635	220
0	1992	44.667560665125	221
0	2002	44.786836543991	222
0	2016	45.161528519962	223
0	2030	45.930129836611	224
0	2042	46.17057755006	225
0	2045	46.195282879532	226
0	2047	46.265886906187	227
0	2062	46.5572506179	228
0	2076	46.893435058809	229
0	2084	46.999579558132	230
0	2092	47.100583307683	231
0	2104	47.325639711052	232
0	2116	47.751539590266	233
0	2121	47.80902168548	234
0	2132	47.983128850745	235
0	2137	48.058276619226	236
0	2152	48.485242709223	237
0	2166	49.158116799833	238
0	2178	49.393993386562	239
0	2186	49.571565668649	240
0	2198	49.829947522409	241
0	2208	50.045514499236	242
0	2216	50.184674391416	243
0	2224	50.337047945675	244
0	2242	50.962141617207	245
0	2245	51.014553065542	246
0	2255	51.221112467671	247
0	2263	51.321574627323	248
0	2273	51.43185382535	249
0	2283	51.624744538449	250
0	2293	51.81122511453	251
0	2301	51.940046056195	252
0	2304	51.943922012465	253
0	2313	52.070947555591	254
0	2319	52.142732998765	255
0	2333	52.394541702218	256
0	2345	52.610405741949	257
0	2348	52.678338688465	258
0	2353	52.746858613405	259
0	2361	52.843585750723	260
0	2373	53.036060761877	261
0	2385	53.312656603184	262
0	2393	53.424648817199	263
0	2407	53.846138338189	264
0	2410	53.875253133879	265
0	2412	53.896962553578	266
0	2419	53.967807380027	267
0	2421	53.987191930942	268
0	2431	54.15596962546	269
0	2435	54.243375228215	270
0	2447	54.422121043876	271
0	2459	54.582631441028	272
0	2469	54.753447388157	273
0	2472	54.760288071829	274
0	2487	54.972089948905	275
0	2503	55.666597044761	276
0	2513	55.877766966493	277
0	2516	55.955192984923	278
0	2523	56.068115085147	279
0	2529	56.118131384143	280
0	2547	56.571858182681	281
0	2550	56.602316907732	282
0	2555	56.693951484524	283
0	2557	56.714415607495	284
0	2565	56.828907917781	285
0	2589	57.656469869883	286
0	2601	58.101452801328	287
0	2604	58.161765983973	288
0	2619	58.489945499558	289
0	2627	58.643960871467	290
0	2639	58.887364770534	291
0	2647	59.006179470199	292
0	2650	59.027301998925	293
0	2652	59.048278366045	294
0	2673	59.552134792062	295
0	2678	59.639003923251	296
0	2691	59.889525428233	297
0	2699	60.016217951778	298
0	2723	61.369296055765	299
0	2733	61.73724261278	300
0	2738	61.769616630122	301
0	2753	62.239652088072	302
0	2765	62.644833851493	303
0	2768	62.65249043407	304
0	2770	62.687955549099	305
0	2777	62.829939134544	306
0	2788	63.021132419328	307
0	2796	63.057640139705	308
0	2798	63.084076881628	309
0	2814	63.38604157275	310
0	2828	63.762827350067	311
0	2840	64.163224649172	312
0	2852	64.492568469437	313
0	2858	64.598569045064	314
0	2868	64.76694523741	315
0	2871	64.797103439449	316
0	2880	64.901677445467	317
0	2882	64.908434802577	318
0	2884	64.92276987944	319
0	2912	65.732739247201	320
0	2922	65.971826960457	321
0	2927	66.065281473739	322
0	2936	66.186141288109	323
0	2946	66.295112713738	324
0	2958	66.5511795545	325
0	2961	66.561562064937	326
0	2976	66.964116612178	327
0	2981	67.055098981136	328
0	2998	67.797091099517	329
0	3001	67.800444652715	330
0	3016	68.187760100213	331
0	3019	68.240225962046	332
0	3021	68.24258260843	333
0	3038	68.532141424828	334
0	3043	68.621391988932	335
0	3060	69.198314339352	336
0	3072	69.460174012157	337
0	3083	69.737432282561	338
0	3086	69.775091277605	339
0	3091	69.858013786137	340
0	3100	70.005240006134	341
0	3112	70.139732109501	342
0	3115	70.150906120079	343
0	3117	70.233701904614	344
0	3124	70.278329746234	345
0	3126	70.317895647726	346
0	3128	70.32163474181	347
0	3136	70.359138532051	348
0	3152	70.674821076472	349
0	3160	70.799340545268	350
0	3166	70.850041686297	351
0	3186	71.265247898386	352
0	3191	71.349979318657	353
0	3206	71.926888176338	354
0	3220	72.453331948848	355
0	3228	72.640759692393	356
0	3240	72.884519053062	357
0	3248	73.066111858527	358
0	3251	73.072583219456	359
0	3268	73.378749464709	360
0	3271	73.414740933019	361
0	3278	73.553380886927	362
0	3290	73.747677318546	363
0	3293	73.758013899705	364
0	3300	73.930198627041	365
0	3316	74.170392808349	366
0	3319	74.224726422417	367
0	3340	75.200553000016	368
0	3354	75.744822651199	369
0	3357	75.807016212193	370
0	3368	75.997382153701	371
0	3380	76.224701452752	372
0	3388	76.378117383666	373
0	3402	76.777551777164	374
0	3410	76.955827492546	375
0	3422	77.233762905301	376
0	3432	77.495719979573	377
0	3446	78.163306846344	378
0	3449	78.238084145525	379
0	3459	78.399680156205	380
0	3467	78.501253180742	381
0	3470	78.549003755312	382
0	3474	78.596108669996	383
0	3481	78.646428392619	384
0	3483	78.687634802316	385
0	3489	78.737006656076	386
0	3515	79.314821774456	387
0	3523	79.483417529539	388
0	3535	79.752487016186	389
0	3543	79.872822813491	390
0	3553	80.007671727418	391
0	3569	80.710567463525	392
0	3572	80.762170016313	393
0	3585	80.990397596885	394
0	3590	81.04909912727	395
0	3592	81.066929985269	396
0	3594	81.078886177852	397
0	3599	81.090500650275	398
0	3607	81.204480163336	399
0	3613	81.338302908074	400
0	3621	81.413036866953	401
0	3643	81.838770885859	402
0	3655	82.07714250659	403
0	3671	82.826481429355	404
0	3674	82.921364687422	405
0	3685	83.113652601736	406
0	3690	83.153246148803	407
0	3697	83.309641292978	408
0	3703	83.314638963641	409
0	3719	83.700310991017	410
0	3722	83.714234525232	411
0	3735	83.986620870093	412
0	3747	84.214128571201	413
0	3753	84.344374717585	414
0	3763	84.465290961252	415
0	3775	84.691362070434	416
0	3783	84.845186030653	417
0	3793	85.031998097174	418
0	3807	85.485966100331	419
0	3817	85.736806754349	420
0	3835	86.664737259624	421
0	3843	86.791523263503	422
0	3846	86.840421467912	423
0	3853	86.962188050659	424
0	3867	87.179768937382	425
0	3881	87.653552571549	426
0	3884	87.714673551912	427
0	3886	87.74419275849	428
0	3888	87.748366202212	429
0	3895	87.800436484521	430
0	3911	88.084513175638	431
0	3927	88.511225833133	432
0	3932	88.588363371942	433
0	3947	89.057932124228	434
0	3950	89.154659801726	435
0	3963	89.362229816824	436
0	3971	89.539730202521	437
0	3978	89.618244808159	438
0	3993	89.973873475526	439
0	3999	90.12054701016	440
0	4009	90.318847868739	441
0	4012	90.318858939118	442
0	4029	90.731023187294	443
0	4034	90.805775846057	444
0	4039	90.869690777032	445
0	4047	90.980524942842	446
0	4061	91.30046883121	447
0	4073	91.733621567385	448
0	4078	91.774691121132	449
0	4089	92.002502651267	450
0	4105	92.613139585186	451
0	4111	92.734948507728	452
0	4125	92.967571164413	453
0	4131	93.099671780363	454
0	4134	93.148215479097	455
0	4151	93.459148066659	456
0	4165	94.048044122144	457
0	4168	94.100172148019	458
0	4182	94.362673746612	459
0	4194	94.7872230774	460
0	4197	94.845813369097	461
0	4204	94.921099239401	462
0	4206	94.969083943288	463
0	4229	95.600503051571	464
0	4235	95.746548584619	465
0	4246	95.874186305738	466
0	4249	95.879385854777	467
0	4262	96.128056010367	468
0	4267	96.174561014044	469
0	4271	96.207935942291	470
0	4276	96.318503616421	471
0	4292	96.580698090053	472
0	4299	96.674433385248	473
0	4312	96.882274512564	474
0	4320	97.006840374517	475
0	4323	97.055224303471	476
0	4330	97.120267507066	477
0	4332	97.161539105787	478
0	4344	97.338296236994	479
0	4360	97.667911471626	480
0	4372	98.066719311881	481
0	4382	98.341655302641	482
0	4385	98.366661820626	483
0	4396	98.591353920536	484
0	4406	98.737058689083	485
0	4413	98.80189851178	486
0	4415	98.830226918739	487
0	4420	98.868679206907	488
0	4432	99.121041741604	489
0	4446	99.36484161064	490
0	4454	99.46569759729	491
0	4462	99.590104981106	492
0	4472	99.756780629235	493
0	4486	100.123833309823	494
0	4489	100.164325062563	495
0	4493	100.210173927604	496
0	4498	100.241469081681	497
0	4500	100.277523941597	498
0	4508	100.411432059769	499
0	4514	100.438100184424	500
0	4520	100.525991262523	501
0	4532	100.782076133319	502
0	4554	101.346203323002	503
0	4557	101.352388581314	504
0	4570	101.6422995366	505
0	4582	101.917168139484	506
0	4592	102.193360758617	507
0	4597	102.21279429429	508
0	4612	102.680892686421	509
0	4615	102.729932304949	510
0	4617	102.747354021601	511
0	4634	103.024017314831	512
0	4642	103.184695667364	513
0	4656	103.447820919023	514
0	4664	103.623463934767	515
0	4667	103.632801483496	516
0	4686	104.286500763661	517
0	4689	104.333431933512	518
0	4696	104.402535850254	519
0	4698	104.470166793223	520
0	4704	104.525272380631	521
0	4716	104.751456076469	522
0	4718	104.77259351129	523
0	4720	104.785616084247	524
0	4726	104.788929303131	525
0	4734	104.951157507577	526
0	4760	105.481669210681	527
0	4763	105.483525815557	528
0	4774	105.7052077664	529
0	4788	106.063205687296	530
0	4798	106.370771430191	531
0	4816	107.201965649304	532
0	4819	107.268147625539	533
0	4832	107.511285720211	534
0	4840	107.687861829202	535
0	4845	107.727950268219	536
0	4847	107.741168670358	537
0	4854	107.88481796638	538
0	4866	108.01777951629	539
0	4876	108.191492662583	540
0	4894	108.950297419201	541
0	4906	109.260099755032	542
0	4918	109.678411069557	543
0	4926	109.864933440611	544
0	4931	109.947479413956	545
0	4936	109.996762578399	546
0	4956	110.648546773836	547
0	4962	110.77000263156	548
0	4967	110.822718054127	549
0	4984	111.244895809004	550
0	4998	111.841335944099	551
0	5004	111.97689634451	552
0	5020	112.544224383185	553
0	5030	112.795671782299	554
0	5042	113.116763534913	555
0	5050	113.24993203224	556
0	5060	113.449024760913	557
0	5072	113.695600853519	558
0	5084	114.110353146139	559
0	5092	114.248240053709	560
0	5097	114.317590714467	561
0	5112	114.689877043063	562
0	5124	115.067897382682	563
0	5127	115.111116626001	564
0	5138	115.303519011319	565
0	5150	115.600367507849	566
0	5155	115.603032556815	567
0	5172	116.334964022968	568
0	5177	116.420271185375	569
0	5192	116.816820966296	570
0	5195	116.848887785193	571
0	5209	117.152101571158	572
0	5223	117.953691502133	573
0	5234	118.794063387383	574
0	5240	118.924222855855	575
0	5253	119.204357995247	576
0	5259	119.341946690939	577
0	5262	119.342757955203	578
0	5276	119.546795372794	579
0	5281	119.609594952407	580
0	5288	119.701553215962	581
0	5296	119.807246661622	582
0	5298	119.836691669085	583
0	5308	119.948493203083	584
0	5324	120.293819879031	585
0	5327	120.364539194084	586
0	5334	120.406645851725	587
0	5340	120.509188780251	588
0	5348	120.65239784385	589
0	5350	120.678113891305	590
0	5356	120.728916166975	591
0	5380	121.518442820487	592
0	5383	121.539036493231	593
0	5390	121.643252257448	594
0	5406	122.03963032567	595
0	5414	122.208057586237	596
0	5430	122.929845787234	597
0	5435	123.014044446844	598
0	5452	123.662037040224	599
0	5462	123.973095912295	600
0	5476	124.447173428418	601
0	5482	124.553165744272	602
0	5495	124.85065169514	603
0	5498	124.939681563021	604
0	5503	125.020718139489	605
0	5512	125.122716306259	606
0	5514	125.139632204611	607
0	5520	125.211490985636	608
0	5528	125.316084516367	609
0	5544	125.614610949205	610
0	5551	125.667465042032	611
0	5566	126.188779402496	612
0	5569	126.217204504775	613
0	5576	126.295904987	614
0	5578	126.30688646151	615
0	5600	126.917858417311	616
0	5610	127.17648798907	617
0	5613	127.179297307318	618
0	5615	127.18159595736	619
0	5622	127.334080694203	620
0	5638	127.628521525802	621
0	5645	127.701169969582	622
0	5650	127.732956605513	623
0	5666	128.161833698416	624
0	5669	128.178406153	625
0	5671	128.23610869507	626
0	5675	128.254883604527	627
0	5690	128.481159358048	628
0	5702	128.704136842429	629
0	5714	129.036729998564	630
0	5719	129.093034803058	631
0	5724	129.206213711385	632
0	5732	129.315345254338	633
0	5746	129.594319072591	634
0	5754	129.75732273877	635
0	5768	130.111246703412	636
0	5780	130.50525821653	637
0	5783	130.60055393305	638
0	5798	130.860243060171	639
0	5801	130.880549876959	640
0	5803	130.943581882702	641
0	5808	131.002762257352	642
0	5810	131.030955834235	643
0	5822	131.210221675239	644
0	5824	131.221614981732	645
0	5832	131.351049922541	646
0	5838	131.422842186216	647
0	5846	131.556702760613	648
0	5852	131.617497072459	649
0	5860	131.740184890377	650
0	5872	131.861997781442	651
0	5878	132.010714419797	652
0	5890	132.240662697347	653
0	5898	132.357347451554	654
0	5912	132.595246701821	655
0	5924	132.97821515335	656
0	5927	133.044895821025	657
0	5934	133.158529917773	658
0	5942	133.254113515275	659
0	5956	133.60485644428	660
0	5959	133.644827551864	661
0	5966	133.787229164989	662
0	5982	134.097978265395	663
0	5985	134.116045714211	664
0	5987	134.127751294	665
0	5998	134.3435366757	666
0	6010	134.582339349819	667
0	6015	134.62862354421	668
0	6030	134.930266590535	669
0	6042	135.306090277377	670
0	6052	135.606572836119	671
0	6062	135.835310960236	672
0	6067	135.895375976293	673
0	6069	135.934668353472	674
0	6074	136.028289644119	675
0	6080	136.042773466142	676
0	6088	136.219925595348	677
0	6090	136.221872677216	678
0	6098	136.285589446792	679
0	6120	136.73080624468	680
0	6125	136.823484250188	681
0	6132	136.852134854464	682
0	6134	136.896028486643	683
0	6150	137.198120806888	684
0	6160	137.321304663645	685
0	6174	137.839794385402	686
0	6177	137.848921995301	687
0	6190	138.100100692169	688
0	6202	138.421784261986	689
0	6210	138.556774456717	690
0	6213	138.572790227906	691
0	6222	138.699576653204	692
0	6228	138.845885721031	693
0	6246	139.274505661117	694
0	6249	139.347795919484	695
0	6260	139.481842294799	696
0	6270	139.654175793158	697
0	6278	139.761256663377	698
0	6294	140.402218429299	699
0	6297	140.440477638479	700
0	6308	140.6479266573	701
0	6318	140.776908355533	702
0	6321	140.784108921483	703
0	6338	141.090278605272	704
0	6344	141.202843645635	705
0	6354	141.365423317872	706
0	6364	141.508100174432	707
0	6367	141.542939206507	708
0	6376	141.69658987488	709
0	6382	141.727646991981	710
0	6394	141.956406067805	711
0	6406	142.166063888796	712
0	6409	142.231098062894	713
0	6420	142.386066538795	714
0	6423	142.413657185181	715
0	6432	142.49246869957	716
0	6438	142.592207166144	717
0	6440	142.624009569504	718
0	6462	143.250575467413	719
0	6467	143.28541521073	720
0	6469	143.32685224718	721
0	6474	143.354569611465	722
0	6494	143.823217597484	723
0	6502	143.99620521937	724
0	6512	144.153172623288	725
0	6515	144.17253211775	726
0	6524	144.29462868675	727
0	6540	144.777431972852	728
0	6552	145.204916310935	729
0	6555	145.222239709824	730
0	6562	145.344960551772	731
0	6578	145.667226951596	732
0	6588	145.924819346611	733
0	6600	146.344146601316	734
0	6606	146.445987098689	735
0	6611	146.465611003215	736
0	6628	146.934384931375	737
0	6634	147.045516714007	738
0	6648	147.279769452996	739
0	6654	147.407964162049	740
0	6666	147.648506918815	741
0	6674	147.822100915219	742
0	6681	147.901517105223	743
0	6694	148.153445339348	744
0	6704	148.436202005256	745
0	6707	148.441690425342	746
0	6718	148.643844257962	747
0	6732	148.906748677579	748
0	6735	148.96164138198	749
0	6750	149.252953424295	750
0	6753	149.287952433939	751
0	6755	149.289915321219	752
0	6770	149.608226545778	753
0	6777	149.6819431337	754
0	6794	150.321594129054	755
0	6797	150.374612749335	756
0	6804	150.497161838308	757
0	6814	150.637166965531	758
0	6824	150.815967246067	759
0	6840	151.430582290624	760
0	6852	151.820577672993	761
0	6860	151.983781385786	762
0	6870	152.105992898043	763
0	6873	152.126503276644	764
0	6892	152.733291791124	765
0	6900	152.927693969336	766
0	6910	153.099180989859	767
0	6924	153.496768880828	768
0	6934	153.840582743186	769
0	6939	153.874890468661	770
0	6954	154.353926426539	771
0	6972	155.330626224608	772
0	6984	155.66867321556	773
0	6987	155.686439692091	774
0	6989	155.721171004733	775
0	6991	155.74101531003	776
0	7002	155.939271211182	777
0	7014	156.140081445958	778
0	7020	156.241725336769	779
0	7038	156.838081268234	780
0	7043	156.851034406792	781
0	7058	157.403155297929	782
0	7066	157.513496020447	783
0	7074	157.632112339912	784
0	7079	157.691978016396	785
0	7094	157.952145501888	786
0	7106	158.330291332774	787
0	7116	158.601435035544	788
0	7119	158.608209406592	789
0	7123	158.681550437351	790
0	7144	159.320302811887	791
0	7147	159.345817526646	792
0	7152	159.433632923764	793
0	7160	159.5509866851	794
0	7166	159.639217647246	795
0	7174	159.738659504515	796
0	7176	159.741952161312	797
0	7184	159.893745116162	798
0	7190	159.934715569591	799
0	7208	160.308043663627	800
0	7216	160.410629061993	801
0	7226	160.564321577471	802
0	7242	161.094159229917	803
0	7252	161.322215005301	804
0	7255	161.343201554767	805
0	7266	161.53110195194	806
0	7282	162.112285872671	807
0	7285	162.133020039999	808
0	7300	162.540278877453	809
0	7303	162.559587133259	810
0	7310	162.680673889587	811
0	7312	162.69219247295	812
0	7318	162.771305593029	813
0	7320	162.789407087059	814
0	7326	162.842394074586	815
0	7330	162.896538952733	816
0	7342	163.087163460386	817
0	7364	163.453071891558	818
0	7367	163.459798675742	819
0	7374	163.60758267973	820
0	7376	163.610728504485	821
0	7388	163.754657484023	822
0	7396	163.866659158689	823
0	7408	164.076527591874	824
0	7411	164.090627981546	825
0	7418	164.247939799924	826
0	7426	164.305994482949	827
0	7428	164.31259527996	828
0	7430	164.36258544329	829
0	7442	164.536157817268	830
0	7448	164.594547031614	831
0	7466	164.889431476571	832
0	7469	164.917526619962	833
0	7476	165.011920237516	834
0	7478	165.014342086528	835
0	7486	165.149413260562	836
0	7488	165.173956262025	837
0	7516	165.973468957369	838
0	7524	166.166187496627	839
0	7529	166.222302681862	840
0	7548	166.954215105554	841
0	7551	167.047999371009	842
0	7572	167.976055370199	843
0	7575	167.985402350546	844
0	7582	168.090608509698	845
0	7584	168.164840853858	846
0	7590	168.200416205429	847
0	7608	168.556603140407	848
0	7620	168.760246656168	849
0	7632	169.089283341583	850
0	7638	169.224072030427	851
0	7650	169.428415699909	852
0	7668	170.337980470281	853
0	7671	170.429786055778	854
0	7676	170.443292887153	855
0	7680	170.518305275777	856
0	7696	170.824093049919	857
0	7710	171.147825263203	858
0	7713	171.215872707126	859
0	7715	171.230483038557	860
0	7722	171.285744077143	861
0	7734	171.515876595729	862
0	7746	171.73311725796	863
0	7751	171.828959796857	864
0	7758	171.885449139249	865
0	7770	172.086435801061	866
0	7782	172.305674313263	867
0	7794	172.828802499747	868
0	7802	172.974478014354	869
0	7816	173.359225728488	870
0	7824	173.469586152816	871
0	7832	173.607288930425	872
0	7842	173.769084869452	873
0	7852	173.880750227305	874
0	7855	173.948419451045	875
0	7872	174.294243378582	876
0	7882	174.539469821029	877
0	7892	174.807525013425	878
0	7900	174.914704772493	879
0	7908	175.03323625608	880
0	7915	175.122664236599	881
0	7932	175.816793252706	882
0	7944	176.169610731144	883
0	7949	176.259858490842	884
0	7964	176.777823719941	885
0	7972	176.879168362721	886
0	7975	176.888588216932	887
0	7988	177.156992165169	888
0	7993	177.209948619837	889
0	8000	177.329182998116	890
0	8006	177.414884518952	891
0	8024	177.96871341552	892
0	8036	178.306157073272	893
0	8039	178.365631778854	894
0	8058	179.21223493812	895
0	8063	179.308410582981	896
0	8080	180.002981724162	897
0	8090	180.241879712864	898
0	8104	180.712546666479	899
0	8116	181.167288099817	900
0	8119	181.237641576903	901
0	8123	181.26344927754	902
0	8146	182.229393327134	903
0	8151	182.284687870443	904
0	8156	182.34206968952	905
0	8158	182.393892140696	906
0	8160	182.416281048925	907
0	8172	182.550757629333	908
0	8194	183.15375128377	909
0	8206	183.59799412041	910
0	8211	183.651157430214	911
0	8216	183.739824309414	912
0	8228	183.973911455417	913
0	8235	184.071215283369	914
0	8240	184.083240957195	915
0	8256	184.580367174064	916
0	8266	184.842759790281	917
0	8271	184.866926069534	918
0	8286	185.293866548442	919
0	8294	185.493326333275	920
0	8299	185.556937242313	921
0	8301	185.585437831443	922
0	8308	185.680740995638	923
0	8314	185.774500133966	924
0	8322	185.868275765092	925
0	8328	185.946708023017	926
0	8344	186.222999838987	927
0	8358	186.45095892032	928
0	8361	186.505270078656	929
0	8374	186.822741524594	930
0	8379	186.860454469444	931
0	8384	187.000663571309	932
0	8392	187.119973554684	933
0	8398	187.190237810992	934
0	8406	187.262853579029	935
0	8422	187.6970987553	936
0	8434	188.062604008863	937
0	8437	188.149336979938	938
0	8442	188.203630973224	939
0	8458	188.471811318142	940
0	8464	188.611398827908	941
0	8474	188.773497457344	942
0	8490	189.344982526907	943
0	8493	189.389991025679	944
0	8504	189.591014155393	945
0	8514	189.750058595655	946
0	8528	190.153975496299	947
0	8536	190.300620564035	948
0	8552	190.864002910028	949
0	8555	190.949785277182	950
0	8568	191.227656978572	951
0	8571	191.232642597718	952
0	8584	191.47315406666	953
0	8587	191.505382582425	954
0	8606	192.193571391942	955
0	8609	192.221850014489	956
0	8632	193.258875899096	957
0	8642	193.505019669302	958
0	8648	193.625250598579	959
0	8662	193.87218657379	960
0	8665	193.886887849274	961
0	8676	194.076108197525	962
0	8679	194.145394863024	963
0	8692	194.368286509367	964
0	8697	194.401345111831	965
0	8704	194.520011225483	966
0	8710	194.628091765003	967
0	8724	194.866288055682	968
0	8729	194.894437086768	969
0	8734	194.989505020696	970
0	8746	195.174832740755	971
0	8749	195.195911966737	972
0	8758	195.292427009769	973
0	8776	195.937490226512	974
0	8788	196.388985584663	975
0	8791	196.404023946496	976
0	8810	197.091148624992	977
0	8813	197.095046483582	978
0	8820	197.253368302503	979
0	8838	198.031550320585	980
0	8843	198.095818381159	981
0	8845	198.127964389272	982
0	8856	198.307374992093	983
0	8862	198.367245592681	984
0	8878	198.82138761416	985
0	8883	198.869936701632	986
0	8888	198.974358962514	987
0	8900	199.14781736628	988
0	8910	199.308444720664	989
1	2	0.159174900913	0
1	3	0.159174900913	1
1	4	0.259174900913	0
1	8	0.33888697861	0
1	9	0.33888697861	1
1	13	0.43888697861	0
1	21	0.590073130219	0
1	22	0.590073130219	1
1	23	0.690073130219	0
1	32	0.961993972634	0
1	33	0.961993972634	1
1	36	1.061993972634	0
1	40	1.146638598928	0
1	41	1.146638598928	1
1	45	1.246638598928	0
1	53	1.536947666105	0
1	54	1.536947666105	1
1	57	1.636947666105	0
1	61	1.694387894101	0
1	62	1.694387894101	1
1	66	1.794387894101	0
1	74	2.070180704942	0
1	75	2.070180704942	1
1	78	2.170180704942	0
1	82	2.180390402276	0
1	83	2.180390402276	1
1	87	2.280390402276	0
1	91	2.375791687555	0
1	92	2.375791687555	1
1	97	2.475791687555	0
1	103	2.583423547688	0
1	104	2.583423547688	1
1	108	2.680449180432	0
1	109	2.683423547688	1
1	112	2.783423547688	0
1	117	2.795553019809	0
1	118	2.795553019809	1
1	120	2.866184847637	0
1	125	2.895553019809	1
1	128	2.995553019809	0
1	139	3.310889732044	0
1	140	3.310889732044	1
1	142	3.322566665863	0
1	143	3.410889732044	1
1	148	3.510889732044	0
1	159	3.985549121849	0
1	160	3.985549121849	1
1	162	4.049220350017	0
1	165	4.085549121849	1
1	169	4.145940771007	0
1	170	4.185549121849	1
1	176	4.275830040657	0
1	177	4.285549121849	1
1	181	4.385549121849	0
1	192	4.589609264182	0
1	193	4.589609264182	1
1	194	4.689609264182	0
1	202	4.924051504247	0
1	203	4.924051504247	1
1	206	5.024051504247	0
1	210	5.07458632691	0
1	211	5.07458632691	1
1	214	5.17458632691	0
1	220	5.205362840354	0
1	221	5.205362840354	1
1	224	5.305362840354	0
1	228	5.373249410934	0
1	229	5.373249410934	1
1	235	5.473023812737	0
1	236	5.473249410934	1
1	239	5.573249410934	0
1	252	5.992674629907	0
1	253	5.992674629907	1
1	254	6.092674629907	0
1	263	6.354348482762	0
1	264	6.354348482762	1
1	266	6.369085553855	0
1	270	6.451401153104	1
1	271	6.454348482762	2
1	275	6.469633358329	1
1	276	6.554348482762	2
1	281	6.654348482762	1
1	286	6.678555859991	0
1	288	6.682640977671	1
1	289	6.754348482762	2
1	296	6.774490605122	1
1	297	6.854348482762	2
1	301	6.954348482762	1
1	307	7.054348482762	0
1	312	7.13198813781	0